# vtk DataFile Version 5.1
vtk output
ASCII
DATASET POLYDATA
POINTS 27514 float
-16.7839 5.81203 1.52886 -16.6898 5.87701 2.02001 -16.6285 5.92229 1.53157 
-16.7957 5.79591 2.04447 -16.5033 6.00399 1.70712 -16.5403 5.96063 1.18145 
-16.8036 5.79604 1.59509 -16.8123 5.79788 2.22963 -16.5728 5.98203 2.56417 
-16.7757 5.80329 1.05501 -16.8033 5.79593 1.54182 -16.8279 5.55727 1.59545 
-16.8199 5.55714 2.04483 -16.856 5.80315 2.77674 -16.2574 6.15942 2.02534 
-16.2023 6.15425 1.57968 -16.5392 5.92015 0.826929 -16.7884 5.79373 1.09075 
-16.8276 5.55716 1.54218 -16.8366 5.55911 2.22999 -16.8589 5.8035 2.82262 
-16.3815 6.11528 3.06218 -16.1336 6.13919 1.00488 -16.744 5.79461 0.722134 
-16.7878 5.79361 1.05222 -16.8126 5.55496 1.09111 -16.8518 5.31839 1.54254 
-16.8521 5.3185 1.59581 -16.8442 5.31837 2.04519 -16.8803 5.56438 2.7771 
-16.8604 5.80369 2.84393 -16.6417 5.97352 3.22793 -16.0633 6.24357 2.14272 
-15.9527 6.22728 1.2596 -16.2438 6.02687 0.323924 -16.4009 5.90905 -0.185393 
-16.7518 5.78947 0.731187 -16.812 5.55484 1.05258 -16.8369 5.31619 1.09147 
-16.8609 5.32034 2.23035 -16.8831 5.56473 2.82298 -16.7124 5.93342 3.61339 
-16.2251 6.18865 3.0808 -15.8463 6.21503 0.426374 -16.0393 6.13282 0.36234 
-16.5882 5.79646 -0.18342 -16.7505 5.78932 0.716457 -16.7761 5.5507 0.731547 
-16.8363 5.31607 1.05294 -16.8612 5.07742 1.09183 -16.8761 5.07962 1.5429 
-16.8764 5.07973 1.59617 -16.8685 5.0796 2.04555 -16.9046 5.32561 2.77746 
-16.8847 5.56492 2.84429 -16.8689 5.80469 2.93163 -16.8719 5.82553 3.24011 
-16.476 6.08073 3.77765 -15.8894 6.28608 2.37922 -15.7874 6.27873 1.59799 
-15.7038 6.27348 0.940453 -15.9833 6.10044 -0.166597 -16.1844 5.97448 -0.474653 
-16.5696 5.76916 -0.460564 -16.6324 5.7761 -0.0905077 -16.7747 5.55055 0.716817 
-16.8003 5.31193 0.731906 -16.8606 5.0773 1.0533 -16.8851 5.08157 2.23071 
-16.9074 5.32596 2.82334 -16.9203 5.81134 3.87397 -16.63 6.01249 4.25717 
-16.2773 6.18267 3.6945 -15.9809 6.26 3.18544 -15.6453 6.26343 0.421769 
-16.5359 5.76548 -0.632547 -16.617 5.77436 -0.203539 -16.6239 5.77515 -0.144871 
-16.6567 5.53733 -0.0901479 -16.799 5.31178 0.717176 -16.8246 5.07316 0.732266 
-16.8849 4.83853 1.05366 -16.8854 4.83865 1.09219 -16.9004 4.84085 1.54326 
-16.9007 4.84096 1.59653 -16.8927 4.84083 2.04591 -16.9288 5.08684 2.77782 
-16.9089 5.32615 2.84465 -16.8931 5.56592 2.93199 -16.8949 5.80777 3.22758 
-16.9185 5.81107 3.81784 -16.9207 5.81139 3.88115 -15.6966 6.27086 2.5983 
-15.6235 6.26982 1.79754 -15.317 6.27322 0.878286 -15.7701 6.18365 -0.196663 
-15.8679 6.1019 -0.835111 -16.5249 5.76429 -0.675058 -16.5602 5.52671 -0.632188 
-16.5938 5.53039 -0.460204 -16.6482 5.53638 -0.144511 -16.6809 5.29856 -0.0897884 
-16.8233 5.07301 0.717536 -16.8489 4.83439 0.732625 -16.9094 4.8428 2.23107 
-16.9317 5.0872 2.8237 -16.8961 5.80797 3.27127 -16.9428 5.5723 3.8182 
-16.9446 5.57257 3.87433 -16.9208 5.81145 3.91894 -16.3413 6.15917 4.46334 
-16.0572 6.24636 3.75205 -15.6217 6.25487 3.49345 -15.3495 6.27237 1.2842 
-15.2556 6.25494 -0.0433748 -15.5363 6.23308 -0.403255 -15.6905 6.16817 -0.893584 
-15.8301 6.06634 -1.16203 -16.4605 5.76297 -1.03258 -16.5491 5.52552 -0.674698 
-16.6413 5.53559 -0.203179 -16.6724 5.29761 -0.144151 -16.7052 5.05979 -0.0894287 
-16.8475 4.83424 0.717896 -16.8731 4.59562 0.732985 -16.9091 4.59977 1.05402 
-16.9097 4.59988 1.09255 -16.9246 4.60208 1.54362 -16.925 4.60219 1.59689 
-16.917 4.60206 2.04627 -16.9531 4.84807 2.77818 -16.9332 5.08738 2.84501 
-16.9174 5.32715 2.93234 -16.9191 5.569 3.22794 -16.9204 5.5692 3.27163 
-16.945 5.57262 3.88151 -16.8835 5.83902 4.52164 -16.6251 6.00078 4.82381 
-16.1347 6.21397 4.30272 -15.4724 6.272 2.53852 -15.405 6.27352 1.74001 
-15.151 6.34714 1.4514 -15.1935 6.28099 0.311472 -16.4807 5.75937 -0.959008 
-16.505 5.5206 -0.958649 -16.5734 5.28675 -0.674339 -16.5845 5.28794 -0.631828 
-16.6181 5.29162 -0.459845 -16.6655 5.29682 -0.202819 -16.6967 5.05884 -0.143792 
-16.7295 4.82102 -0.0890691 -16.8718 4.59547 0.718255 -16.9337 4.60403 2.23143 
-16.9559 4.84843 2.82406 -16.9447 5.33043 3.27199 -16.9671 5.33353 3.81856 
-16.9689 5.3338 3.87469 -16.9451 5.57268 3.9193 -16.9183 5.812 4.45149 
-16.4518 6.08711 5.00157 -16.2154 6.16663 5.0098 -15.7162 6.22109 4.20477 
-15.4579 6.28937 3.54568 -15.1022 6.34472 0.734519 -15.1593 6.27346 -0.158033 
-15.4795 6.22401 -0.902654 -15.6404 6.13291 -1.30848 -16.1529 5.8865 -1.31966 
-16.4681 5.75799 -1.02994 -16.5292 5.28183 -0.958289 -16.6898 5.05806 -0.20246 
-16.721 4.82008 -0.143432 -16.7537 4.58225 -0.0887095 -10.6004 3.95316 -2.52625 
-9.72879 3.87317 3.18055 -16.9774 4.6093 2.77854 -16.9575 4.84861 2.84537 
-16.9417 5.08838 2.9327 -16.9434 5.33023 3.2283 -16.9693 5.33385 3.88187 
-16.9147 5.81174 4.51641 -16.8607 5.8334 4.93272 -16.6582 5.96928 5.18906 
-15.8022 6.19715 4.88061 -15.4835 6.28185 4.06361 -15.3321 6.32014 2.82503 
-15.2456 6.3298 2.10678 -14.8952 6.42809 0.678241 -14.88 6.40392 0.170979 
-15.1632 6.24467 -0.925854 -15.417 6.20098 -1.37508 -16.3707 5.74746 -1.44193 
-16.4587 5.75696 -1.07685 -16.4924 5.51922 -1.02958 -16.5166 5.28045 -1.02922 
-16.5535 5.04306 -0.957929 -16.5977 5.04798 -0.673979 -16.6087 5.04917 -0.631469 
-16.6424 5.05285 -0.459485 -16.7141 4.81929 -0.2021 -16.7452 4.58131 -0.143072 
-16.9802 4.60966 2.82442 -16.9677 5.09146 3.22866 -16.9689 5.09166 3.27234 
-16.9913 5.09476 3.81892 -16.9931 5.09503 3.87505 -16.9693 5.33391 3.91966 
-16.9426 5.57323 4.45185 -16.8918 5.80994 4.86818 -16.5339 6.02348 5.29077 
-16.2946 6.11601 5.41205 -16.0676 6.15502 5.36246 -15.5169 6.27743 4.53493 
-15.2347 6.38169 3.7402 -14.9392 6.45092 1.71608 -14.881 6.44849 1.34596 
-14.8279 6.41344 -0.226563 -15.064 6.27156 -0.934353 -15.6196 6.11073 -1.67 
-15.999 5.94374 -1.48366 -16.19 5.7493 -2.16736 -16.4829 5.51819 -1.07649 
-16.5409 5.04168 -1.02886 -16.6666 4.81408 -0.459125 -16.7383 4.58052 -0.20174 
-5.24775 3.41229 -0.430899 -16.9817 4.60984 2.84573 -16.9659 4.84961 2.93306 
-16.9935 5.09508 3.88223 -16.939 5.57297 4.51677 -16.8848 5.80933 4.93507 
-16.861 5.80736 5.23988 -16.7401 5.83177 5.55862 -15.9166 6.15326 5.59341 
-15.6134 6.25248 4.99085 -15.1017 6.4168 2.81503 -15.0294 6.42321 2.15012 
-14.5637 6.56064 1.20376 -14.562 6.53684 0.367908 -14.8376 6.37458 -0.845345 
-14.9711 6.25517 -1.67895 -15.0304 6.22344 -2.00222 -15.3389 6.17362 -1.98394 
-15.9444 5.9067 -1.92399 -16.2625 5.73567 -1.9701 -16.3949 5.50869 -1.44157 
-16.5072 5.27942 -1.07613 -16.5315 5.04065 -1.07577 -16.5652 4.80291 -1.0285 
-16.5778 4.80429 -0.95757 -16.6219 4.80921 -0.673619 -16.633 4.8104 -0.631109 
-16.6909 4.57531 -0.458766 -6.11945 3.49229 -6.13766 -4.37572 3.33225 5.27592 
-16.9919 4.85269 3.22902 -16.9932 4.85289 3.2727 -17.0156 4.85599 3.81928 
-17.0174 4.85626 3.87541 -16.9936 5.09514 3.92002 -16.9668 5.33446 4.45221 
-16.9161 5.57117 4.86854 -16.8656 5.80776 5.19226 -16.8512 5.80642 5.27985 
-16.4959 5.99451 5.62288 -16.1394 6.10999 5.80163 -15.6208 6.24219 5.33257 
-15.2204 6.4019 5.01778 -15.0507 6.45832 4.33413 -15.0269 6.44959 3.43445 
-14.6411 6.55724 2.35474 -14.5648 6.57594 1.78591 -14.4905 6.5427 -0.218254 
-14.4327 6.53159 -0.829047 -14.736 6.38692 -1.32506 -15.5343 6.09097 -2.12711 
-15.8548 5.90706 -2.39637 -16.224 5.73148 -2.15243 -16.2868 5.4969 -1.96974 
-16.4192 5.26992 -1.44121 -16.5557 4.80188 -1.07541 -16.6573 4.57163 -0.630749 
-13.0314 4.1887 -10.1977 -0.766847 2.95142 -4.04233 -8.85843 3.79331 8.88797 
-16.9902 4.61084 2.93342 -17.0178 4.85631 3.88259 -16.9633 5.3342 4.51713 
-16.9091 5.57056 4.93543 -16.8899 5.56899 5.19262 -16.8852 5.56859 5.24024 
-16.7679 5.79838 5.55977 -16.5476 5.94036 5.7703 -16.3292 6.05656 5.75863 
-15.9571 6.13206 6.15627 -15.7019 6.22374 5.8223 -15.16 6.4246 4.80203 
-14.9732 6.47939 3.96018 -14.7332 6.5529 3.36529 -14.3323 6.64165 2.02059 
-14.2947 6.63788 0.885524 -13.9991 6.70542 0.314379 -14.3376 6.51107 -1.65229 
-14.6809 6.37674 -1.78583 -14.9216 6.25372 -2.08403 -15.1283 6.17518 -2.50023 
-15.2648 6.13721 -2.56288 -16.0983 5.71773 -2.79823 -16.211 5.73007 -2.21022 
-16.2482 5.49271 -2.15207 -16.3111 5.25813 -1.96938 -16.4435 5.03115 -1.44085 
-16.4677 4.79238 -1.44049 -16.58 4.56311 -1.07505 -16.5895 4.56414 -1.02814 
-16.602 4.56552 -0.95721 -16.6462 4.57044 -0.67326 -13.1308 4.199 -10.0642 
-12.7799 4.16263 -10.532 -1.63854 3.03142 -9.74909 2.06427 2.67342 2.43125 
-3.49823 3.25166 10.9836 -16.4489 4.56209 7.09499 -17.0162 4.61392 3.22938 
-17.0175 4.61412 3.27306 -17.0399 4.61722 3.81964 -17.0417 4.61749 3.87577 
-17.0179 4.85637 3.92038 -16.9911 5.09569 4.45257 -16.9404 5.3324 4.8689 
-16.8754 5.56765 5.28021 -16.7514 5.79681 5.62652 -16.6817 5.81379 5.86252 
-16.3922 5.97935 6.25391 -16.1994 6.05859 6.23926 -15.2986 6.37867 5.73896 
-14.7335 6.56869 4.97103 -14.6566 6.59544 4.21036 -14.664 6.59189 3.68275 
-14.7195 6.55122 3.00022 -14.2205 6.66 0.673002 -14.0174 6.67446 -0.511898 
-14.0673 6.59014 -1.63332 -14.8899 6.22311 -2.55445 -15.4501 6.04459 -2.82685 
-15.9436 5.70096 -3.4954 -16.2352 5.4913 -2.20986 -16.2725 5.25394 -2.15171 
-16.3353 5.01937 -1.96902 -16.492 4.55361 -1.44013 -13.1386 4.1998 -10.0536 
-13.1065 4.43777 -10.0645 -13.0072 4.42746 -10.1981 -12.768 4.1614 -10.5474 
-8.71501 3.74427 -13.9898 3.7096 2.48638 -10.7225 5.20247 2.34655 -2.81707 
3.75683 2.50872 7.29858 -8.00778 3.71546 14.6052 -16.3692 4.55427 7.27941 
-16.5795 4.57483 6.74469 -17.0421 4.61754 3.88295 -16.9875 5.09543 4.51749 
-16.9334 5.33179 4.93579 -16.9141 5.33022 5.19298 -16.9095 5.32982 5.2406 
-16.7922 5.55961 5.56013 -16.6972 5.79166 5.87056 -16.6039 5.82272 6.15138 
-15.9962 6.11151 6.53326 -15.5455 6.30114 6.38946 -14.6299 6.59314 5.71256 
-14.6954 6.57503 5.34657 -14.4051 6.67006 3.79727 -14.3052 6.66636 2.77463 
-14.063 6.69856 1.23647 -13.9942 6.71843 0.65743 -13.5845 6.80018 0.342326 
-13.9667 6.65023 -1.19953 -14.2378 6.51027 -2.27443 -14.6583 6.3678 -2.10894 
-14.5865 6.3591 -2.50208 -14.8136 6.21939 -3.07269 -15.1736 6.11255 -3.16072 
-15.7281 5.91244 -2.78035 -15.5679 5.87155 -3.63974 -15.9678 5.46219 -3.49504 
[...]
CELL_DATA 55024
SCALARS Distance double
LOOKUP_TABLE default
5.0781103492 5.1906825194 5.0427668161 4.9423770483 5.1569233197 5.3010898037 5.1810263898 4.9039832507 4.9251791485 
5.0905325922 5.2441094666 5.4011363585 5.4189624197 5.3703713266 5.1002007775 4.8403497839 4.8153289863 4.9710277557 
5.028988108 5.1714171454 5.2521566288 5.3791615184 5.500341519 5.5480465323 5.3097739884 5.1127229112 4.9004270454 
4.7167337918 4.7046963937 4.7610274276 4.9274684892 5.0605329043 5.1856924337 5.3942975293 5.4640256755 5.6149054267 
5.5725866314 5.435675652 5.3026795522 5.0532883959 5.071382403 4.904563025 4.6575690155 4.5096518246 4.3853562266 
4.7657758902 4.8586209317 5.0046049107 5.0600410284 5.2823793696 5.4115336637 5.4752569252 5.5972019189 5.7137594827 
5.7563627132 5.5071813002 5.4245896361 5.196026953 4.9841945267 4.9317792622 4.778085952 4.5222210739 4.3443503493 
4.2279801653 4.1147047794 4.6725496811 4.8130203124 4.945578232 5.128418313 5.1793978708 5.4013071982 5.6185883564 
5.6855665615 5.8307163989 5.7987604225 5.6639265615 5.4986862721 5.2332854352 5.0899469232 4.9034908844 4.8396021269 
4.9518797609 4.7591181381 4.4859771206 4.334481738 4.0304108775 3.8438115242 3.7856935313 4.1691266348 4.4319578636 
4.7101939874 4.7538220051 4.931587318 5.0648328003 5.2508346635 5.3042580258 5.5714919775 5.6997307865 5.8169715657 
5.9292104218 5.9670596738 5.735934261 5.6532883929 5.4122070018 5.1925030106 5.1182304511 4.8737787596 4.7696230249 
4.823213067 4.9180528149 4.6078157686 4.2919491196 4.0291972113 3.8227709237 3.6230633966 3.6686855536 3.8096391633 
3.9272259124 4.2420650335 4.513166219 4.8312852001 4.8777672413 5.0587686529 5.1924484376 5.3811761585 5.5281018326 
5.7980471111 5.9085492806 6.0483500481 6.0260032862 5.89311135 5.7277789839 5.4804889958 5.260695184 5.1601910264 
5.0930549075 4.9758391944 4.7654759373 4.7404466205 4.8488769819 4.8755695439 4.6809029473 4.40625001 4.0166183417 
3.8757182286 3.492862293 3.5198666772 3.6299569232 3.7872446479 3.8960491661 3.9878950405 4.0490141395 4.3761287857 
4.6435392354 4.9610388263 5.0101498647 5.1939320825 5.3278244313 5.4368506026 5.6978692101 5.8550096728 6.0382814981 
6.1464804968 6.1798937279 5.9655711171 5.8828878787 5.6414080064 5.37017749 5.2346241354 5.1941184442 5.2091591218 
5.198770139 5.0023555099 4.6760941079 4.6710214071 4.7417066341 5.0294775629 4.6711309208 4.5881130065 4.2139210626 
3.8031577649 3.5316706809 3.3636781005 3.2351216238 3.4149858021 3.564186383 3.6266886379 3.7248147196 3.9038302447 
3.9411058356 4.0038294991 4.1302174165 4.193841094 4.5189702943 4.7824102782 5.0987935893 5.1503194579 5.3364709792 
5.5188809444 5.6622344089 5.9260727158 6.0817257556 6.2676173729 6.2541997154 6.1231248799 5.9577300592 5.7103117146 
5.4231972082 5.3202373782 5.277547318 5.3259980926 5.2808242938 5.2748347495 5.1942871533 4.943712532 4.6789635671 
4.5887902005 4.6140840465 4.6546940936 4.8098406222 5.0165894412 4.7979860027 4.6682543204 4.215538555 3.8605196755 
3.4700076242 3.1125986733 3.232864565 3.3389847888 3.534954902 3.7227426778 3.7857599396 3.9368277558 4.0850588488 
4.1502337057 4.2812712445 4.3471016247 4.6697841376 4.9290606573 5.2439187209 5.2976578723 5.4703842379 5.5766236602 
5.8313893026 5.9850251241 6.250928903 6.365384047 6.3946524384 6.1959936674 6.1132858253 5.8714718407 5.6010985964 
5.3946665526 5.5123498841 5.4390036951 5.4290545667 5.2678282088 5.0155873393 4.8112035146 4.6141612301 4.5095652058 
4.5455862912 4.6047458862 4.7165531406 4.9783532934 4.7665178558 4.6101730967 4.3804625959 3.9491582984 3.5384688797 
3.2911929725 3.0001985351 3.0402345967 3.2519065004 3.4115644941 3.5768926208 3.6999587434 3.7876987072 3.8817570003 
4.0538477431 4.23772273 4.3050467849 4.4401659755 4.5079355363 4.827822972 5.0828168607 4.9613387443 5.0257084225 
5.0969276604 6.7021494735 6.8308501803 6.9330124779 6.8690110138 6.4832487562 6.3538773942 6.1884443137 5.9409389897 
5.6553486724 5.5532355242 5.627994833 5.5622073865 5.5111640739 5.5054251318 5.4247620331 5.1455539949 4.9819277729 
4.8572814242 4.6749844857 4.5357641241 4.4659512257 4.4797564524 4.5668312395 4.6056988227 4.7673481174 5.0400963387 
4.874023947 4.5869336375 4.3348509167 4.013741127 3.6412913649 3.4380733173 3.0520126606 2.9529652532 2.9241235241 
3.0388692136 3.2235013709 3.3085378683 3.3809948971 3.5531557522 3.7502999078 3.8896535805 3.9500088123 4.0950216842 
4.2122048808 4.3981908194 4.4673948636 4.6060899242 4.6755613999 4.8151891262 6.7943786324 6.7976874788 6.4271172531 
6.3443962094 6.1023010081 5.8327528817 5.7868059915 5.7475821248 5.6696902089 5.6601465924 5.4987124179 5.1870778853 
5.0751249989 4.9621407194 4.936509232 4.7835455232 4.6577059543 4.5311087425 4.4589381303 4.4472696749 4.4741150004 
4.5607437087 4.633081083 4.9301655593 4.863125661 4.6446432824 4.2178647314 3.8867850431 3.4420190575 3.0829684068 
2.7844725908 2.865449205 2.7931636304 3.1265533638 3.2695679782 3.336871868 3.4787659762 3.6568293161 3.7328143403 
3.8728134474 3.9567223703 4.0468537626 4.260867372 4.377997077 4.5656403544 4.6364865918 4.6749056267 8.7897323787 
6.7461236419 6.4198396634 6.1722813809 5.8881294034 5.8618619298 5.7980712116 5.7422952923 5.7367874237 5.6560291424 
5.378117847 5.150329775 5.0522734461 4.9354782001 4.8571155073 4.7587627446 4.590903602 4.4949968302 4.4574213184 
4.4050072161 4.4692945898 4.6692673814 4.8650023665 4.9614693706 4.7601937094 4.6256431461 4.2378507852 4.0485511344 
3.6403914696 3.4704762355 3.0903775496 2.8743399128 2.6558484323 2.7662491567 2.7648963165 2.6639440224 2.701842766 
3.0935738381 3.2327831069 3.4417240161 3.5111969468 3.6928975865 3.8416388778 3.9307173369 4.0638890633 4.1216935255 
4.2191486224 4.4335065022 4.5504118402 4.6573476735 7.1292308873 11.046326582 6.7407115442 6.3338122187 6.0650561511 
6.0208822768 5.9831927711 5.9011196286 5.8919507214 5.7303455879 5.4214019938 5.3107734637 5.1177863284 5.0260246766 
4.9285398088 4.9242134379 4.8640841296 4.8494258802 4.7470038244 4.6284241196 4.5213379092 4.5049498826 4.4265381114 
4.397889239 4.344293721 4.4058571109 4.5906317346 4.9381799368 5.0034270973 4.8085568286 4.756588683 4.4707796549 
3.9746941959 3.5268014324 3.2324719559 3.0352061638 2.8606476597 2.6364168741 2.5133290383 2.6620680629 2.4736414932 
2.5815164868 2.8074346949 2.9711050442 3.2749942651 3.4124295032 3.6216093716 3.8081284211 3.8809381757 3.9189403099 
4.0525146736 4.1327765829 4.299924167 4.3977954065 4.6113072928 4.0276689988 8.5130678654 11.424941304 8.1313177959 
6.7317975526 6.4042606789 6.1214677687 6.0962054641 6.027756805 5.9741259698 5.9688318758 5.8879953822 5.6113075515 
5.3862525107 5.2889404429 5.1035530886 5.0174538797 5.011270643 5.0105048506 4.9169072775 4.7864941352 4.6184320324 
4.5722869562 4.539411529 4.4319834619 4.3381454178 4.3084240331 4.3263137363 4.415891448 4.5012903053 4.59829307 
4.8708375894 4.958220328 4.8696628778 4.5486912561 4.1576407966 3.6957057959 3.2754602234 3.1477179674 2.8953036794 
2.6654414499 2.4775747214 2.3917316639 2.529080339 2.4288810235 2.3911518022 2.5448699437 2.6570397741 2.7540573601 
3.0061737302 3.1656364897 3.4635497275 3.5991200961 3.7918140462 4.0003540289 4.0322674482 4.1172234844 4.2445476858 
4.315000692 4.5531193051 2.6065095767 2.7785626548 6.7080136565 11.580476823 6.372201974 6.9494774496 6.7019862438 
6.2979365807 6.2554070318 6.2191391375 6.133208022 6.1243864581 5.9626409039 5.6562022208 5.5467953584 5.3551435434 
5.2638721182 5.0932213426 5.0905258863 5.0897087465 5.0086121392 4.920450541 4.8637789838 4.7465369363 4.6981399084 
4.6221841523 4.6099758207 4.4986802738 4.3688317476 4.3058346371 4.2614770161 4.2532835313 4.3434278096 4.4741894755 
4.5059644744 4.6287649027 4.7448482055 5.0279865483 4.7729412817 4.4537112312 4.3578283439 4.0334202422 3.7143943919 
3.2278392642 2.9762335951 2.7368161448 2.5381871654 2.4560316928 2.3729918605 2.2863047859 2.2984312914 2.2825786559 
2.456384243 2.6129490902 2.6913122584 2.8662259662 2.9628741236 3.2105557276 3.3660424636 3.6581369664 3.8578435022 
3.9896422555 4.0744413993 4.1106548032 4.2381911191 4.5261499546 2.6121304621 1.5379914516 1.5812244515 2.7851167153 
4.8145462032 5.9802691544 9.8985946176 8.5573973277 6.5621944816 3.8244167033 5.4328215377 6.4907439563 6.6778593124 
6.355302102 6.3309728009 6.2582171607 6.2065778793 6.2014820918 6.1205813203 5.8450491795 5.6225212262 5.5258950834 
5.3415425163 5.2556887484 5.2497865412 5.2490558521 5.0887027338 5.0126128968 4.9266719949 4.9247466577 4.8833485008 
4.8349901198 4.698487965 4.6571745826 4.5670824342 4.3975299491 4.2338881621 4.2115647952 4.2628908039 4.3885757439 
4.4666212454 4.6221119691 4.7410597635 4.8796246504 4.8174286249 4.6840792552 4.4716126666 4.2553510841 3.5766384922 
3.3596516115 3.0168213661 2.845003099 2.6965269939 2.5232483646 2.3708153415 2.2726125306 2.2250228529 2.2491713127 
2.1709544831 2.2204016561 2.4649361279 2.6005606519 2.8254014053 2.9046433432 3.0799092458 3.1760999404 3.4195696446 
3.5713346616 3.7807172149 4.3901127076 4.429539246 4.4425198369 4.4850503128 2.6237299245 1.5276497389 1.4572116002 
1.4765607604 1.533040587 1.626837965 2.7861472369 3.4297770767 3.4067104581 4.6462229223 7.0708920236 10.561913797 
9.4428889347 5.357878424 3.0825263084 2.9759036365 5.3559554395 6.1158079618 6.2659144051 6.4674516358 6.6215530883 
6.5671189976 6.561764033 6.1955235791 5.891421848 5.7831451663 5.5927263574 5.5019062146 5.3316719482 5.329097834 
5.328317009 5.247248626 5.0931410711 5.0202498073 4.9567921845 4.9557945861 4.920492435 4.7812371755 4.7505616547 
4.5949971296 4.5230271902 4.3631760806 4.2738990921 4.2076815332 4.2019616558 4.2635937592 4.3951369666 4.5437662103 
4.8721081838 4.993354838 4.6677248711 4.4815016077 4.1848756432 3.6732363963 3.3625829883 3.0696793919 2.8354983429 
2.6039058555 2.4410902292 2.3025859058 2.2544465799 2.1780843648 2.1887227144 2.2178133894 1.9279258355 2.1043214544 
2.4318732214 2.6891074529 2.82076332 3.0419537503 3.1218489097 3.29721526 3.3929042451 3.6324159851 4.3166262945 
2.6385378731 1.4952426262 1.4391309151 1.3150723848 1.3258539955 1.3646837134 1.5521544889 1.6301853032 2.791275941 
3.4227312368 2.3003598814 2.2697536643 3.3770532297 3.2868391433 3.9553866057 6.6688363454 8.8869889536 7.509749711 
5.9562729528 4.3043695235 1.9614148276 2.1032512653 2.8665544561 5.3116297601 5.9718527552 5.9667095425 6.1178512903 
6.1579656121 6.2042769813 6.4467775528 6.55810163 6.0792784183 5.8590931755 5.7631019674 5.5797043545 5.4940776963 
5.4884321568 5.4877330933 5.3273557531 5.251067676 5.1062507178 5.0442170173 4.9808520436 4.9907715306 4.9164027779 
4.8656002752 4.7885754252 4.7293726134 4.5937762608 4.4273920829 4.3073073736 4.2257933884 4.2149775035 4.2427005425 
4.3523409114 4.5317902334 4.7604547976 4.9776018683 5.0962547966 4.9593424054 4.668960805 4.3472214196 3.892140746 
3.5423922709 3.2789614606 3.0575745112 2.6778277456 2.4544877373 2.1464657607 2.1054482225 2.0672550936 1.8645894961 
2.0066729253 2.1920623309 2.3984618742 2.6028529541 2.9157998953 3.0439602588 3.2617894214 3.3421744637 3.5174732434 
3.6126429118 4.2399779616 2.6479764856 1.4857393836 1.4134786698 1.280155439 1.2255496573 1.2450869327 1.2643351981 
1.3093945473 1.3998508758 1.555519901 1.6433317285 2.7966670208 3.4214388498 2.311225656 2.2403220194 2.2175474704 
2.1925811021 2.2499738516 3.3498364555 3.1961416574 2.0799700494 3.7442294688 4.8283145141 5.7353253675 7.4597511465 
10.380424625 8.2107588558 4.0420273292 2.7989816214 1.4841203865 1.0830833472 2.078828877 1.9995091309 2.0110321622 
2.8853732442 5.2957024144 5.9061192742 5.8640550309 5.8191040813 5.9667456059 6.0357485613 6.1242188589 6.1711890604 
6.4302871087 6.5152483574 6.1270119536 6.0197834198 5.8305070487 5.7401042066 5.5702561209 5.5677923147 5.5670447903 
5.4860044594 5.331595563 5.2583581751 5.1333828442 5.0704619498 5.0141338576 5.0169621178 4.9690575317 4.8728012294 
4.8130390216 4.7210486638 4.5247287471 4.418947629 4.3937630873 4.3178235326 4.2773177392 4.2270761277 4.2623662672 
4.3005687613 4.4220794804 4.6251718674 4.7565303796 4.9880862357 5.1036775093 5.0657689728 4.8174993052 4.6268253777 
4.1861967392 3.963032026 3.6314085542 3.4270945604 3.158306014 2.8843995301 2.6026396846 2.3339731032 2.1594062268 
1.9700114364 1.9700971678 1.8170534149 1.8143481115 1.9126016985 2.00302102 2.1810536908 2.2906810862 2.5857774283 
2.7840403512 3.1444675637 3.2695385773 3.4842876781 3.5650413188 4.2005652042 2.6703460446 1.4854536214 1.4127295768 
1.2686849572 1.1970769304 1.065172311 1.1010598335 1.1093659829 1.1440324159 1.325128104 1.4026706471 1.5782663454 
1.6685382516 2.8093266013 3.4021489224 2.3116666196 2.2406375607 2.0987045917 2.088373549 2.0566844918 2.1696403994 
2.2303410811 3.330290828 3.2578370657 2.159616671 2.1046739258 2.051192378 3.7196426442 5.0947137918 5.1280289398 
4.8472922509 5.6203484003 6.4569769269 7.8358855924 11.869761705 7.075962772 3.7204635947 3.068736973 2.9384699876 
2.3391068705 1.5118937784 1.6642758856 1.576643451 1.0640553382 2.0482668885 1.9945422242 1.9163501761 1.9207508085 
1.9454571563 2.0428027447 2.8993267575 5.2761861106 5.8751916173 5.8333405198 5.7516247218 5.7117849185 5.817127356 
5.972055451 5.9268469831 5.9717356702 6.067567387 6.1227505589 6.4280827897 6.4763726781 6.0959326694 6.0005305224 
5.8180170877 5.7326009699 5.7271905626 5.7265207732 5.5661248578 5.4896572731 5.344119896 5.2812450295 5.1534281922 
5.0867574347 5.0230261324 5.0441887434 5.0072166246 4.9593253917 4.8379272969 4.8022108076 4.7774380144 4.5799930887 
4.5099570506 4.4854675026 4.4406782007 4.3608177698 4.2715789362 4.2882574474 4.3904324609 4.6246965327 4.7745036817 
4.8884620226 5.2316871336 5.0096066176 4.8026295702 4.7937876345 4.7125887153 4.2076997027 3.8290349647 3.3463047518 
3.0662334663 2.8136533445 2.6511468384 2.3772414128 1.9840249426 1.7872603303 1.8185553351 1.7455467169 1.7475561122 
1.7806547204 1.9246143751 2.091519019 2.2646904731 2.3688004116 2.4667656133 2.7718081028 2.9731211412 3.3563308272 
3.4970377274 4.0939598403 2.6813265131 1.4661008769 1.4057068363 1.2675470704 1.1958826672 1.055158327 0.98457173951 
1.0098796352 1.0294112963 1.0419182518 1.0859884427 1.1738723311 1.3281857717 1.4156070856 1.5951545342 1.6988791604 
2.8235405022 3.3821010963 2.3183792506 2.2443020223 2.099145216 2.0281230899 2.0278015883 2.0045232304 1.9774517049 
2.0334431797 2.1530465359 2.2178457435 3.3182877967 3.2940763159 2.1914145047 2.1138084544 2.063579452 2.0223620474 
2.0775150919 1.4078599687 3.6931539831 5.0550240456 4.9968739207 5.0277298772 5.0745488525 5.1739688166 4.8614097057 
5.6014821512 6.9236164306 6.9858138087 6.5022660317 8.4929036196 9.5350652636 12.896626728 12.33836762 8.1207321641 
6.887152634 3.7317585124 2.9530211263 2.8773501668 3.0505674637 2.9545742909 2.5544590441 2.5429675211 2.3256231596 
1.5592651062 1.72021886 1.6416876803 1.5680042734 1.4815618172 1.499066482 1.0446841443 2.0075281566 1.9949107387 
1.9147284918 1.7553391566 1.7609803023 1.774053468 1.9680770384 2.066158248 2.9177100397 5.2298309412 5.8363653599 
5.7978990137 5.7198620926 5.6802469011 5.6031536903 5.6723996529 5.8237613389 5.8063786753 5.8917764167 5.9373518206 
6.0433290875 6.1146673396 6.4244918416 6.4548750073 6.0684624602 5.9784463125 5.8089564781 5.8065941114 5.8058774843 
5.7248642244 5.5701826516 5.4966310322 5.3700505059 5.3063180438 5.1724906253 5.1030312579 5.0779484484 5.1254741054 
5.0758117056 4.9498920947 4.8942215809 4.7799855737 4.7730418289 4.6984814811 4.5755850236 4.5258746458 4.5390808477 
4.5070639309 4.3643905487 4.3154011701 4.2856718138 4.3633899319 4.4338874897 4.6439736476 4.9245281519 5.2199716195 
5.0854263792 5.0305038484 4.8874435787 4.6163418894 4.4184928747 3.9734620995 3.813456112 3.4754471976 3.1525527291 
2.8814698516 2.6213905833 2.5585715832 2.2402926579 2.0615955076 1.8113980524 1.7252581884 1.5712442236 1.6454813393 
1.6911787431 1.8468976405 2.0209512048 2.0983263542 2.2670800496 2.354254089 2.5426430327 2.6414140621 2.9465833162 
3.1547013059 3.900840684 2.6969038241 1.4593589198 1.3899308952 1.2579744969 1.1944532312 1.0534745698 0.98360369872 
0.84323066357 0.85060861459 0.88153750727 0.88822415841 0.92135873576 1.0996033897 1.1762904442 1.3514617604 1.4429260883 
1.6450906343 1.7433231144 2.824632209 3.3211977869 2.3206941768 2.2499247803 2.1068840446 2.0324932373 1.8880551885 
1.8873976251 1.8747581476 1.8404818307 1.9532027903 2.0120476649 2.1415980906 2.211840404 2.2081009199 2.1306522034 
1.9755031539 1.9408980794 1.884902591 1.9927707102 1.5672031994 2.5918842415 3.6677391532 5.0231947524 4.9561521547 
4.8316973545 4.873206372 4.9078958557 5.1068483385 5.198798141 4.8891914653 5.5808527491 6.8670187523 6.8231149709 
6.8712352997 6.9575708332 7.0690688802 6.5173415541 8.4622009216 10.451618351 10.530513078 9.626883363 12.858991699 
14.113035795 13.971381223 12.211815251 8.1819721161 8.4203266372 8.3173714535 6.757453892 3.7484854827 2.9713394728 
2.8937175863 2.862780651 2.758999887 2.7959863517 3.0397522931 2.9640937817 2.5659262077 2.488220358 2.4719972957 
2.4709880085 2.5546660784 2.3080680949 1.6197303097 1.845773473 1.7249374552 1.5275624207 1.4681929339 1.3789191209 
1.4109558617 1.4246984112 1.0156681532 1.95987152 1.98724467 1.9193155546 1.7557577309 1.6755903945 1.6774429874 
1.6824681644 1.7106201973 1.8099888994 2.0094572499 2.1164176442 2.9404612423 5.1758804029 5.7290624855 5.7221580949 
5.6799742584 5.6438446371 5.5705445822 5.5333305717 5.5657012577 5.6737567308 5.784337915 5.6964630355 5.7398086845 
5.8328681371 5.8869900091 6.0295937388 6.0985505767 6.4185854605 6.4365561158 6.0564635257 5.9712425357 5.9660486994 
5.9654054855 5.8049954153 5.7283647061 5.5821717167 5.5185297903 5.389215681 5.3218913778 5.1820435884 5.1317126258 
5.1150432358 5.1479401248 5.0665440646 5.0025855455 4.9807893333 4.9004423868 4.6310310972 4.5232885045 4.5593768428 
4.6760786437 4.6281477316 4.5816339429 4.576637489 4.452254507 4.3377656443 4.3167898327 4.3840484946 4.5732124888 
4.8256936842 5.0455027123 5.3155291748 5.1831922707 5.0852246266 4.9688525787 4.8170803302 4.7418601839 4.4530658647 
3.9845595475 3.6584392809 3.3644926723 2.9379080672 2.5883707509 2.4359298496 2.2468474416 1.9698396015 1.7262785131 
1.6003730977 1.5105767662 1.5241732228 1.6250676463 1.8137522327 1.977920313 2.1877508303 2.3663753762 2.4376839485 
2.5287136167 2.7191382276 2.818536283 3.7706689974 2.7212684107 1.4439355683 1.3817478453 1.2494191442 1.1801004267 
1.045510226 0.98106141777 0.84150477838 0.77169715902 0.77266497511 0.79420913544 0.80826893232 0.82037014485 0.86241520481 
0.94975942924 1.1022139434 1.1879992211 1.3682898178 1.4695496114 1.6691091317 1.7466570748 2.8262859074 3.2576924338 
2.3000757762 2.2423642154 2.1089449279 2.0393866088 1.9002639333 1.8255611922 1.8185420783 1.8180315922 1.7904891774 
1.7617902973 1.8173549026 1.9347841071 1.9994682039 2.1399224458 1.9912860221 1.9146119699 1.8978525724 1.8442827587 
1.802796141 1.8555813235 2.0185806869 1.4586174399 3.0423250715 2.7893548976 3.2105987303 3.6450081027 4.9905029742 
4.9273770567 4.7983869755 4.732216695 4.7748485645 4.8071072388 4.8550759791 4.9546467571 5.1385525262 5.2512307368 
4.9149362291 5.5628935582 6.8120472792 6.7629701596 6.6707382852 6.7275817985 6.7911669667 7.0136583983 7.0933603238 
6.5774332319 8.4367635825 10.380236385 10.354812799 10.402787475 10.541170739 10.678216094 9.6556528189 12.786427686 
14.181576105 14.120975624 14.051171871 13.839186056 13.760530455 12.064472594 8.2513608158 8.5256190139 8.4378901856 
8.3557061155 8.2085616439 8.1354613876 6.674813444 3.7715593416 3.0140849488 2.9180606196 2.7444142384 2.72624574 
2.6522182591 2.7173416089 2.7712212437 3.0309388739 2.9830756256 2.579131282 2.4980481141 2.3393769987 2.328712335 
2.3180467965 2.4864017587 2.5759554406 2.293576065 1.6829885249 1.9744569914 1.8761673805 1.6578098119 1.5369244251 
1.4522313851 1.373181995 1.286394569 1.3008599849 1.3308232727 1.3150990061 0.99122552943 1.9253206537 1.9803617306 