# vtk DataFile Version 5.1
vtk output
ASCII
DATASET POLYDATA
POINTS 27514 float
-16.7837 5.81226 1.52911 -16.6896 5.87725 2.02026 -16.6283 5.92252 1.53181 
-16.7955 5.79615 2.04472 -16.5031 6.00422 1.70737 -16.5402 5.96086 1.18169 
-16.8035 5.79628 1.59534 -16.8122 5.79812 2.22988 -16.5726 5.98227 2.56442 
-16.7756 5.80351 1.05526 -16.8032 5.79616 1.54207 -16.8277 5.55751 1.5957 
-16.8198 5.55738 2.04508 -16.8558 5.80339 2.77699 -16.2572 6.15965 2.02557 
-16.2021 6.15448 1.57991 -16.5391 5.92037 0.827172 -16.7882 5.79396 1.091 
-16.8274 5.55739 1.54243 -16.8364 5.55935 2.23025 -16.8587 5.80375 2.82287 
-16.3814 6.11552 3.06241 -16.1335 6.13941 1.00511 -16.7439 5.79484 0.722382 
-16.7876 5.79384 1.05247 -16.8125 5.55519 1.09136 -16.8517 5.31862 1.54279 
-16.852 5.31874 1.59606 -16.844 5.31861 2.04544 -16.8801 5.56462 2.77736 
-16.8602 5.80394 2.84418 -16.6415 5.97377 3.22817 -16.0631 6.2438 2.14295 
-15.9525 6.2275 1.25983 -16.2436 6.02709 0.32416 -16.4008 5.90927 -0.185153 
-16.7517 5.7897 0.731435 -16.8119 5.55507 1.05283 -16.8368 5.31642 1.09172 
-16.8607 5.32058 2.23061 -16.883 5.56498 2.82323 -16.7122 5.93367 3.61364 
-16.225 6.18889 3.08103 -15.8462 6.21524 0.426601 -16.0392 6.13303 0.362571 
-16.5881 5.79668 -0.183175 -16.7503 5.78954 0.716705 -16.7759 5.55093 0.731797 
-16.8362 5.3163 1.0532 -16.861 5.07765 1.09209 -16.876 5.07985 1.54315 
-16.8763 5.07997 1.59642 -16.8683 5.07984 2.0458 -16.9044 5.32585 2.77772 
-16.8845 5.56517 2.84454 -16.8687 5.80493 2.93188 -16.8717 5.82578 3.24036 
-16.4758 6.08097 3.77789 -15.8892 6.28631 2.37945 -15.7872 6.27895 1.59821 
-15.7037 6.27369 0.940676 -15.9832 6.10065 -0.166366 -16.1843 5.97469 -0.474417 
-16.5695 5.76937 -0.460319 -16.6323 5.77632 -0.0902618 -16.7746 5.55077 0.717067 
-16.8002 5.31216 0.732159 -16.8605 5.07754 1.05356 -16.885 5.08181 2.23097 
-16.9072 5.32621 2.82359 -16.9201 5.81159 3.87423 -16.6298 6.01274 4.25742 
-16.2771 6.18292 3.69473 -15.9808 6.26024 3.18567 -15.6451 6.26364 0.421992 
-16.5358 5.76569 -0.632303 -16.6169 5.77458 -0.203293 -16.6238 5.77537 -0.144625 
-16.6566 5.53755 -0.0898997 -16.7989 5.312 0.717429 -16.8245 5.07339 0.732521 
-16.8847 4.83877 1.05392 -16.8853 4.83888 1.09245 -16.9002 4.84108 1.54351 
-16.9005 4.8412 1.59678 -16.8926 4.84107 2.04617 -16.9287 5.08708 2.77808 
-16.9088 5.3264 2.8449 -16.893 5.56616 2.93224 -16.8947 5.80802 3.22783 
-16.9183 5.81132 3.81809 -16.9205 5.81164 3.8814 -15.6964 6.27109 2.59852 
-15.6233 6.27004 1.79776 -15.3168 6.27343 0.878502 -15.77 6.18385 -0.196437 
-15.8678 6.1021 -0.834883 -16.5248 5.7645 -0.674814 -16.5601 5.52692 -0.631941 
-16.5937 5.5306 -0.459957 -16.6481 5.5366 -0.144263 -16.6808 5.29878 -0.0895378 
-16.8232 5.07323 0.717791 -16.8488 4.83462 0.732883 -16.9092 4.84304 2.23133 
-16.9315 5.08744 2.82395 -16.896 5.80822 3.27152 -16.9426 5.57255 3.81846 
-16.9444 5.57282 3.87459 -16.9206 5.81171 3.91919 -16.3411 6.15943 4.46358 
-16.057 6.2466 3.75228 -15.6215 6.2551 3.49367 -15.3494 6.27258 1.28441 
-15.2554 6.25514 -0.04316 -15.5361 6.23329 -0.403034 -15.6904 6.16837 -0.89336 
-15.83 6.06654 -1.1618 -16.4604 5.76318 -1.03234 -16.549 5.52573 -0.674452 
-16.6412 5.53581 -0.202931 -16.6723 5.29783 -0.143901 -16.7051 5.06001 -0.0891758 
-16.8474 4.83447 0.718153 -16.873 4.59585 0.733245 -16.909 4.6 1.05428 
-16.9096 4.60011 1.09281 -16.9245 4.60232 1.54388 -16.9248 4.60243 1.59715 
-16.9169 4.6023 2.04653 -16.9529 4.84831 2.77844 -16.933 5.08763 2.84527 
-16.9172 5.32739 2.9326 -16.9189 5.56925 3.22819 -16.9202 5.56945 3.27188 
-16.9448 5.57287 3.88176 -16.8833 5.83928 4.52189 -16.6249 6.00103 4.82405 
-16.1345 6.21421 4.30295 -15.4723 6.27223 2.53874 -15.4049 6.27374 1.74022 
-15.1509 6.34735 1.45162 -15.1934 6.2812 0.311685 -16.4806 5.75958 -0.958765 
-16.5049 5.52081 -0.958403 -16.5733 5.28696 -0.67409 -16.5844 5.28815 -0.631579 
-16.618 5.29183 -0.459595 -16.6654 5.29704 -0.202569 -16.6966 5.05906 -0.143539 
-16.7294 4.82124 -0.0888138 -16.8717 4.5957 0.718515 -16.9335 4.60427 2.23169 
-16.9558 4.84867 2.82432 -16.9445 5.33068 3.27224 -16.9669 5.33378 3.81882 
-16.9687 5.33405 3.87495 -16.9449 5.57294 3.91955 -16.9181 5.81226 4.45174 
-16.4515 6.08737 5.00181 -16.2151 6.16688 5.01004 -15.716 6.22133 4.205 
-15.4577 6.28961 3.5459 -15.1021 6.34493 0.73473 -15.1592 6.27366 -0.15782 
-15.4794 6.2242 -0.902434 -15.6403 6.1331 -1.30826 -16.1528 5.8867 -1.31942 
-16.468 5.7582 -1.0297 -16.5291 5.28204 -0.958041 -16.6897 5.05827 -0.202207 
-16.7209 4.82029 -0.143177 -16.7536 4.58247 -0.0884519 -10.6003 3.95328 -2.52611 
-9.72863 3.87333 3.18067 -16.9772 4.60954 2.7788 -16.9573 4.84886 2.84563 
-16.9415 5.08862 2.93296 -16.9432 5.33048 3.22856 -16.9691 5.3341 3.88213 
-16.9145 5.81199 4.51666 -16.8605 5.83366 4.93297 -16.658 5.96954 5.1893 
-15.8019 6.1974 4.88084 -15.4833 6.28209 4.06383 -15.332 6.32036 2.82524 
-15.2454 6.33001 2.10699 -14.8951 6.42829 0.678448 -14.8799 6.40412 0.171185 
-15.1631 6.24486 -0.925641 -15.4169 6.20117 -1.37486 -16.3706 5.74767 -1.44169 
-16.4586 5.75716 -1.07661 -16.4923 5.51943 -1.02934 -16.5166 5.28066 -1.02897 
-16.5534 5.04327 -0.957679 -16.5976 5.04819 -0.673728 -16.6087 5.04938 -0.631217 
-16.6423 5.05306 -0.459233 -16.714 4.8195 -0.201845 -16.7451 4.58152 -0.142815 
-16.98 4.6099 2.82468 -16.9675 5.09171 3.22892 -16.9688 5.09191 3.2726 
-16.9911 5.09501 3.81918 -16.993 5.09528 3.87531 -16.9692 5.33417 3.91992 
-16.9424 5.57349 4.45211 -16.8916 5.8102 4.86843 -16.5336 6.02374 5.29101 
-16.2943 6.11627 5.41229 -16.0674 6.15527 5.36269 -15.5167 6.27767 4.53515 
-15.2345 6.38192 3.74041 -14.939 6.45113 1.71629 -14.8808 6.4487 1.34617 
-14.8278 6.41364 -0.226358 -15.0639 6.27175 -0.934142 -15.6195 6.11093 -1.66978 
-15.9989 5.94394 -1.48343 -16.1899 5.7495 -2.16713 -16.4828 5.5184 -1.07625 
-16.5408 5.04189 -1.02861 -16.6665 4.81429 -0.458871 -16.7382 4.58073 -0.201483 
-5.24768 3.41236 -0.430861 -16.9816 4.61009 2.84599 -16.9658 4.84985 2.93332 
-16.9933 5.09533 3.88249 -16.9388 5.57322 4.51702 -16.8846 5.80959 4.93532 
-16.8607 5.80762 5.24013 -16.7399 5.83204 5.55887 -15.9163 6.15352 5.59364 
-15.6132 6.25273 4.99107 -15.1015 6.41702 2.81524 -15.0292 6.42343 2.15033 
-14.5636 6.56084 1.20396 -14.5618 6.53703 0.368107 -14.8374 6.37477 -0.845139 
-14.971 6.25536 -1.67874 -15.0303 6.22362 -2.00201 -15.3388 6.17381 -1.98373 
-15.9443 5.9069 -1.92376 -16.2624 5.73587 -1.96986 -16.3948 5.5089 -1.44133 
-16.5071 5.27963 -1.07589 -16.5314 5.04086 -1.07552 -16.5651 4.80312 -1.02825 
-16.5777 4.8045 -0.957317 -16.6218 4.80942 -0.673366 -16.6329 4.81061 -0.630856 
-16.6908 4.57552 -0.458509 -6.11949 3.49232 -6.13761 -4.37553 3.33235 5.27594 
-16.9918 4.85294 3.22928 -16.993 4.85314 3.27296 -17.0154 4.85624 3.81954 
-17.0172 4.85651 3.87567 -16.9934 5.0954 3.92028 -16.9666 5.33472 4.45247 
-16.9159 5.57143 4.8688 -16.8654 5.80802 5.19251 -16.8509 5.80669 5.2801 
-16.4957 5.99477 5.62313 -16.1392 6.11025 5.80186 -15.6206 6.24244 5.33279 
-15.2202 6.40214 5.01799 -15.0505 6.45855 4.33433 -15.0267 6.44982 3.43466 
-14.6409 6.55745 2.35494 -14.5646 6.57615 1.78611 -14.4904 6.54289 -0.218057 
-14.4326 6.53177 -0.828851 -14.7359 6.38711 -1.32486 -15.5343 6.09116 -2.12689 
-15.8547 5.90725 -2.39614 -16.2239 5.73168 -2.15219 -16.2867 5.4971 -1.9695 
-16.4191 5.27013 -1.44097 -16.5557 4.80209 -1.07516 -16.6572 4.57185 -0.630494 
-13.0315 4.18879 -10.1975 -0.766848 2.9514 -4.04238 -8.85816 3.7935 8.88808 
-16.9901 4.61108 2.93369 -17.0176 4.85656 3.88285 -16.9631 5.33446 4.51738 
-16.9089 5.57082 4.93568 -16.8897 5.56925 5.19287 -16.885 5.56885 5.24049 
-16.7677 5.79865 5.56002 -16.5474 5.94062 5.77054 -16.329 6.05682 5.75887 
-15.9568 6.13232 6.1565 -15.7016 6.224 5.82252 -15.1598 6.42483 4.80224 
-14.973 6.47962 3.96039 -14.733 6.55312 3.36549 -14.3321 6.64186 2.02079 
-14.2945 6.63808 0.885717 -13.999 6.70561 0.314565 -14.3375 6.51125 -1.65209 
-14.6808 6.37692 -1.78563 -14.9215 6.2539 -2.08382 -15.1282 6.17536 -2.50002 
-15.2648 6.13739 -2.56266 -16.0982 5.71792 -2.79799 -16.2109 5.73027 -2.20998 
-16.2482 5.49291 -2.15183 -16.311 5.25833 -1.96914 -16.4434 5.03136 -1.44061 
-16.4677 4.79259 -1.44024 -16.5799 4.56332 -1.0748 -16.5894 4.56435 -1.02789 
-16.6019 4.56574 -0.956955 -16.6461 4.57065 -0.673004 -13.1309 4.19909 -10.064 
-12.78 4.16271 -10.5318 -1.63865 3.03137 -9.74912 2.0644 2.67341 2.43114 
-3.49793 3.2518 10.9836 -16.4486 4.56236 7.09524 -17.016 4.61417 3.22964 
-17.0173 4.61437 3.27333 -17.0397 4.61747 3.8199 -17.0415 4.61774 3.87603 
-17.0177 4.85663 3.92064 -16.9909 5.09595 4.45283 -16.9402 5.33266 4.86916 
-16.8752 5.56792 5.28046 -16.7512 5.79707 5.62677 -16.6815 5.81406 5.86277 
-16.392 5.97962 6.25415 -16.1991 6.05885 6.2395 -15.2983 6.37891 5.73917 
-14.7333 6.56892 4.97124 -14.6564 6.59567 4.21056 -14.6638 6.59211 3.68295 
-14.7193 6.55144 3.00042 -14.2204 6.66019 0.673193 -14.0173 6.67464 -0.511711 
-14.0672 6.59031 -1.63313 -14.8898 6.22329 -2.55424 -15.45 6.04477 -2.82663 
-15.9435 5.70114 -3.49517 -16.2352 5.4915 -2.20962 -16.2724 5.25414 -2.15147 
-16.3353 5.01957 -1.96878 -16.4919 4.55382 -1.43988 -13.1387 4.1999 -10.0534 
-13.1066 4.43786 -10.0643 -13.0073 4.42756 -10.1979 -12.7681 4.16148 -10.5473 
-8.71519 3.74428 -13.9897 3.70946 2.48625 -10.7226 5.20249 2.34646 -2.81723 
3.75705 2.50873 7.29845 -8.0074 3.71568 14.6053 -16.369 4.55454 7.27966 
-16.5792 4.5751 6.74495 -17.0419 4.61779 3.88321 -16.9874 5.09569 4.51775 
-16.9332 5.33205 4.93604 -16.9139 5.33048 5.19323 -16.9093 5.33008 5.24085 
-16.7919 5.55988 5.56038 -16.6969 5.79193 5.87081 -16.6037 5.82299 6.15162 
-15.996 6.11177 6.53349 -15.5453 6.3014 6.38968 -14.6296 6.59337 5.71276 
-14.6952 6.57527 5.34677 -14.4049 6.67028 3.79747 -14.3051 6.66657 2.77482 
-14.0628 6.69876 1.23666 -13.9941 6.71862 0.657617 -13.5844 6.80037 0.342503 
-13.9666 6.6504 -1.19935 -14.2377 6.51044 -2.27424 -14.6582 6.36798 -2.10874 
-14.5864 6.35928 -2.50188 -14.8135 6.21956 -3.07248 -15.1735 6.11272 -3.1605 
-15.7281 5.91263 -2.78012 -15.5679 5.87173 -3.63952 -15.9678 5.46237 -3.4948 
[...]
CELL_DATA 55024
SCALARS Distance double
LOOKUP_TABLE default
3.9512336191 4.0615480015 3.8810341989 3.8278674645 4.0543241116 4.1485903913 3.975684279 3.7564253507 3.83795156 
4.0068803859 4.1413449045 4.2595369963 4.2405723192 4.2026747423 3.8465872077 3.6462958593 3.7236535203 3.9108560822 
3.9578227577 4.0887183414 4.1674042696 4.259996605 4.3545290628 4.3746263313 4.3525567077 3.9725256496 3.6422931763 
3.4977619935 3.54201451 3.7659819151 3.8825355903 4.0008581036 4.1139192979 4.3096440884 4.3625408069 4.4770526251 
4.51887451 4.5348022702 4.3626211936 4.2467408305 3.7889064404 3.5667794747 3.356960003 3.4265931776 3.6068065398 
3.8251449059 3.8569337172 3.9619946779 4.0397756602 4.2255394755 4.3371706336 4.3885979497 4.4798475579 4.5722504286 
4.5903196671 4.6107200086 4.5518373739 4.3509091131 4.4469682629 3.9250908242 3.434452821 3.2055457824 3.2783740823 
3.4582392336 3.4880636225 3.8010658261 3.9066439298 4.0089383782 4.187700302 4.2654846144 4.4511717075 4.531735657 
4.5844780046 4.6951445794 4.7323175662 4.7432474461 4.6239124081 4.4910461807 4.6105895286 4.4968994209 4.2792192672 
3.7270951362 3.3553950754 3.1169503745 3.1852876091 3.2078529358 3.2045898519 3.2697890404 3.5557057716 3.7423425159 
3.8776663995 3.9535405185 4.1299815109 4.2319775049 4.4117484225 4.4894556385 4.5620922077 4.6110422523 4.7016672031 
4.7903239421 4.8072370596 4.8198181214 4.7594846661 4.572028066 4.5504600113 4.7991585183 4.7699625322 4.3541143874 
3.8635162354 3.4522731552 3.1878020603 3.0162659537 3.1129488977 3.1442760867 3.1223756748 3.2029659102 3.3176087148 
3.3928057719 3.6472183308 3.8751657554 4.102581827 4.178966808 4.3550921931 4.4564894726 4.636510468 4.6768154179 
4.7555597799 4.8069568748 4.9149477392 4.9481191761 4.9544722696 4.8324000329 4.6541826646 4.6249614458 4.8920683094 
4.9253068313 4.9086466986 4.6645105851 4.1427671573 3.705300811 3.3588779236 3.1945288586 2.9793529966 2.987812066 
3.0461867362 2.9131271513 3.0963358717 3.258688703 3.3498672988 3.3726435768 3.4754704857 3.5532253087 3.8441978369 
4.0658288446 4.3291175361 4.405932739 4.5817144209 4.6823215638 4.7145873029 4.7875286239 4.8351659892 4.9245395472 
5.0096215785 5.0254715009 5.0315986792 4.9699692958 4.7787421984 4.647517197 4.6831849924 4.7837724324 5.0699255496 
5.091115556 5.0199029831 4.7608906256 4.2219688869 3.8488744496 3.4706372753 3.1230425848 3.0142912898 2.8813664345 
2.9132630018 2.8660390242 2.7908355545 2.7752722382 3.0386184791 3.2226645288 3.3019006046 3.3559245017 3.4617093407 
3.4454968453 3.5242718942 3.681650826 3.7602479671 4.0458266031 4.2614812446 4.551946142 4.6196211463 4.8096350178 
4.8624639369 4.9024343071 4.9805711554 5.03009061 5.1361941976 5.1658389638 5.1681355765 5.0436137125 4.8612900056 
4.7633041286 4.7543292331 4.8613248762 5.0220482832 5.1434377333 5.156791511 5.1003503513 5.1299398525 5.0669667147 
4.6524238274 4.4569373405 4.0831952228 3.68340889 3.4417274338 3.1666731558 2.9803309807 2.83046203 2.8491068053 
2.7904011925 2.6683425898 2.8609118668 3.0604318562 3.2546615172 3.4440124184 3.4777449162 3.5633228369 3.6533693107 
3.7329010364 3.8917100944 3.9709849633 4.2514434077 4.4614659701 4.7477855895 4.8166954442 4.9094823182 4.9408571502 
5.0129890045 5.0602086318 5.1476466538 5.2303693762 5.243399888 5.2457369987 5.1829454343 4.9883602234 4.8508167942 
4.8275553826 5.057948574 5.259218098 5.281187758 5.1718453642 5.2496197559 5.2216290848 5.1734714159 4.9076268998 
4.4667610701 4.236392148 3.792409557 3.3083501719 3.059416913 2.8894635088 2.8370209311 2.776386798 2.7828767817 
2.682862602 2.6120520274 2.7989838372 3.0212431865 3.1460657244 3.3724448986 3.4794937106 3.5237202603 3.5743935084 
3.6738931038 3.8649660142 3.9450988679 4.1050536512 4.1848749765 4.4604964087 4.6652260649 4.4158014832 4.4585137598 
4.4687422554 4.7089564257 4.7507975115 4.7936680836 4.8550849451 5.3811608579 5.3839471311 5.2572255413 5.0712221099 
4.9656126008 4.9533272175 5.0273802576 5.2162977755 5.3331994787 5.3460471541 5.2907545097 5.2096764686 5.3623494892 
5.4251086656 5.4035403172 5.116784147 4.9109254844 4.6759214457 4.2186011927 4.0482147924 3.6388182026 3.28161353 
3.105664149 2.7895215429 2.7413507367 2.7112771658 2.7290468986 2.703829914 2.5835470901 2.5654053891 2.652234196 
2.8951082788 3.0091008116 3.0996394819 3.1831478656 3.4126950392 3.6005887778 3.6677077614 3.6994011249 3.7799638568 
3.8893115853 4.0797080909 4.1603199126 4.321194448 4.4014584833 4.3114688734 4.1833519022 4.936232631 5.4619554877 
5.3981188532 5.2005318887 5.0572584802 5.1556270158 5.2576159838 5.4518899926 5.473026257 5.3609853827 5.3714983446 
5.4219844093 5.4401435564 5.5108003157 5.5029870862 5.4809125498 5.315216989 5.1356949409 4.6331874488 4.4106711323 
4.0202737709 3.773116585 3.394161691 3.0000502472 2.7754706767 2.6748497895 2.6224175473 2.6282538121 2.5525316544 
2.5241316497 2.666042181 2.8275253318 2.9700913767 3.083187737 3.1644151443 3.3291774569 3.5600951719 3.6435889436 
3.7062289652 3.7477810952 3.7954637295 3.9992725374 4.1074567006 4.2971240377 4.3781182096 4.1983742911 4.0516611895 
5.0057378625 5.4729547965 5.2836430838 5.1711460021 5.2304866888 5.4142133365 5.5266707847 5.5390352209 5.4822302263 
5.4009511889 5.4963360022 5.5109308438 5.6013972028 5.6621481411 5.6919479491 5.446595003 5.326656135 5.2234943172 
4.7727721623 4.2227529072 3.5801240322 3.3483264579 3.0369447004 2.8530596599 2.6312866179 2.5483417915 2.5090810703 
2.5844853123 2.5823560485 2.4167082373 2.3929923829 2.4524125802 2.5795159158 2.706194772 2.7373667208 2.8513483053 
3.0177828645 3.1234586862 3.3138651599 3.3952291229 3.6272352937 3.7921409029 3.8301823836 3.8933454809 3.9232161074 
4.0187065411 4.2208338903 4.3279161844 4.1834929537 4.5795070556 4.441834514 5.0137478284 5.4149570161 5.2665081599 
5.3610382455 5.4595985534 5.6479913226 5.6683379233 5.5534086855 5.5601461261 5.6090843035 5.6383441259 5.6573046548 
5.6653283846 5.7260628977 5.7373035279 5.7808082329 5.7546563546 5.6023783405 5.4942934796 5.4763658191 5.1440455181 
4.9600759196 4.6848232386 4.1850841538 3.6169097218 3.1947249501 2.932649662 2.7516306839 2.6332676003 2.5175308662 
2.4147982347 2.4195260512 2.3604603302 2.3006145738 2.3053312005 2.3173105266 2.4333524799 2.6103292574 2.6937278279 
2.8304667631 2.9472803571 3.0501707407 3.2531013635 3.3570894008 3.5457805065 3.7787052425 3.8602191603 3.8755900643 
3.9345384771 3.9737038681 4.1488410542 4.2437787668 4.1429733888 3.4500943857 5.3135360259 4.7881846825 5.3046648609 
5.0270039074 5.4982660192 5.3795348251 5.4366009372 5.6152747683 5.7234725488 5.7353788499 5.6771981551 5.5910237001 
5.6831163694 5.6981691426 5.7302351471 5.7332410988 5.8441758336 5.8698695049 5.9105190868 5.8745760909 5.6657084694 
5.6317765558 5.6342073619 5.3200834461 4.8740428487 4.5538293475 4.3788943895 3.9629192747 3.7880209628 3.4499353956 
3.0910826969 2.7942895695 2.5761642684 2.4040352946 2.2566183503 2.3601388615 2.1899986896 2.1739148144 2.1471137435 
2.1570894 2.1930908633 2.3091229848 2.5332197552 2.5790524763 2.7468702575 2.8280443667 2.9179001734 3.0011782908 
3.1848091717 3.2890116487 3.4890578212 3.5915602841 3.8267167294 4.0124646516 4.0251202163 4.0609795863 4.1206064682 
4.2011876385 4.090181943 2.9390337878 3.2370685737 5.6534639898 5.2833202406 6.2377028207 6.2904872017 5.0744065426 
5.4782798225 5.5692163046 5.6641555278 5.8471771428 5.8667767282 5.7492177831 5.7494016823 5.7937500853 5.8247146515 
5.8396378367 5.8431153383 5.9120378237 5.9356077392 5.9309477648 5.9710678282 5.9893776989 5.9406900767 5.8846917457 
5.8072926952 5.82926947 5.5598340091 5.229885809 4.9660611829 4.7621296077 4.3168012575 3.9445558613 3.665725733 
3.5102411248 3.3138343835 3.1385045962 2.7073010062 2.4485523945 2.313021542 2.2369195214 2.1290002638 2.194882362 
2.016144484 2.0478869994 2.1087969518 2.0726459691 2.0788510731 2.2025624442 2.3015673825 2.4677040597 2.7551942463 
2.8215857092 2.9150763467 2.9953272408 3.1576400825 3.2406821474 3.4226824588 3.5280098093 3.7255308438 3.9624284562 
4.0624403398 4.0940141956 4.1085102134 4.1641624933 4.0638317808 2.9451389435 3.3776699653 3.4315967821 3.2894030458 
5.9489479629 6.7735746908 6.6038925136 6.0126704823 6.3526378735 7.986168657 7.4424881812 6.28145824 5.1180175052 
5.5904592138 5.6453935226 5.8186826346 5.9232725597 5.9347454496 5.8753113466 5.7819924443 5.8662101317 5.8802728625 
5.9135236989 5.9130249865 6.0202516264 6.0457273218 6.0362586829 6.0395251414 6.0275333253 6.0633841246 6.0963910304 
6.1050587212 5.9651277998 5.9710522809 5.7851476895 5.4406407291 4.7976839096 4.4677437769 4.0981943099 3.7423683505 
3.4535822784 3.1576215801 2.9851260773 2.7774421924 2.3588168158 2.256210833 2.1369070303 1.9794138923 2.0943634717 
2.0318546069 1.8250670702 1.9482922023 2.0072735983 1.9439302719 1.9691032331 2.1146042643 2.1786859483 2.5153637799 
2.6311532954 2.9110088413 2.9036213448 2.9877601961 3.1550303683 3.2352641839 3.397416328 3.4802536571 3.6608333608 
3.7654224331 4.0023687295 3.9170102219 3.9665943699 3.9808033559 4.0237225241 2.9497673646 3.3666197997 3.2947644858 
3.3160303505 3.396475141 3.5050752871 3.2946943969 5.125266611 6.4877527018 8.4731406933 6.7174304405 6.8580569299 
7.250807353 8.1507699708 9.7252377047 8.9503784657 7.5091862029 7.6663654916 7.5393934222 6.2192377358 5.1972653572 
5.2845365847 5.2940406674 5.9480779055 5.9384918069 5.9782271809 6.0048189958 6.0240995013 6.0215659889 6.0885355419 
6.1117343716 6.1058461751 6.1085278777 6.1080393412 6.1741928314 6.2134799406 6.2606038817 6.1609100861 6.1446538819 
5.8863967623 5.7621093909 5.3991374472 5.07805023 4.6027048846 4.3101329156 3.9297168032 3.6019392515 3.2286408916 
2.6806327227 2.3593030963 2.1895117628 2.0108275318 1.9080891508 1.9648540065 1.9008213726 1.7111180011 1.8329398623 
1.9258482743 1.8557638539 1.9441184249 2.0216819357 2.1615734047 2.3238493028 2.5485991715 2.6702677826 2.9303447128 
2.9954464817 3.1435549483 3.2273880785 3.3949911399 3.4752093565 3.6372219505 3.7198807022 3.8992110194 3.8151067574 
2.9437404127 3.3396084337 3.2794366842 3.1499125523 3.1617202301 3.2192503845 3.4327755243 3.5101944135 3.3255249611 
5.0912553741 5.6182753938 5.7225528046 6.5382380684 8.2409065111 10.595410657 7.8532130224 7.3152495355 8.5159273698 
8.9810342333 9.4901600103 12.500841923 10.349788136 9.0949170726 7.5494725574 7.7655537343 7.6756982979 7.576094468 
7.4202694368 7.4138973132 6.1499241548 5.3007596481 5.9763114308 6.0516511453 6.0621174323 6.0951987647 6.0954557134 
6.1991103614 6.2237246358 6.2105809228 6.2111281922 6.2100119676 6.2401582257 6.2812171147 6.3184866914 6.2997568562 
6.2842443333 6.2360597695 6.1640824292 5.9593199293 5.5864870636 5.1696189695 4.667214688 4.2645013658 3.9920178196 
3.6395935554 3.171309839 2.7665946215 2.5269659553 2.4268021366 2.1665489216 2.0592036143 1.8311074193 1.916373765 
1.9048854102 1.7725926287 1.5617708543 1.7839531615 1.7421080514 1.7949044187 2.0258356926 2.3717576457 2.6506538166 
2.8504101907 3.055666669 3.1225632329 3.2303898697 3.3834984378 3.4670673238 3.6349565146 3.7151616902 3.877051703 
3.9595526986 3.7344308465 2.9404014711 3.325504713 3.2529966433 3.1216855335 3.0626001087 3.079235701 3.101979898 
3.1865143379 3.2754911442 3.4336487175 3.5160898903 3.3569527661 5.0878017149 5.5788311155 5.5199271874 5.5976836849 
5.6913689262 5.7976377603 6.5914050102 7.0229990111 8.241110898 12.124110403 11.444751154 9.9956678432 7.7293268713 
8.0362392072 8.760504452 11.632177893 12.242527059 11.533929771 11.605961737 10.387242113 10.415738184 10.398542965 
9.07138774 7.5641308309 7.8121874986 7.7491609014 7.5965676656 7.4957451 7.3658327609 7.3498136407 7.3353022537 
6.0840952022 5.3879648801 6.1311450487 6.1665271251 6.1861060997 6.2021198473 6.2023136064 6.2682434616 6.2905039142 
6.2833388682 6.2808860837 6.2797007563 6.340589941 6.3412589744 6.3608675418 6.4471270338 6.4318435618 6.3712456848 
6.2990482837 6.2003831518 5.824735314 5.5376515643 5.4374923027 5.1002867257 4.8515964826 4.4812851274 3.9536404125 
3.7589204624 3.4419439937 2.9746880226 2.7411550653 2.4454286779 2.338485896 2.0965127613 2.0294958551 1.8041777468 
1.7943154746 1.8095691787 1.8111225953 1.7421137058 1.4908487243 1.5211522509 1.6801734416 1.6459568423 1.6559962439 
1.8042580089 1.9488737571 2.3310861652 2.6218717376 2.8232478466 2.8992038512 3.1053179183 3.1358122818 3.333099391 
3.4446491008 3.623448923 3.7067878517 3.8749266192 3.9551198148 3.7073066653 2.9335141723 3.3100719622 3.244196495 
3.1063769724 3.0340736991 2.9045458228 2.9368177653 2.9494910879 3.010773982 3.1973677535 3.2764466934 3.4427326133 
3.527699589 3.404359565 5.0368107656 5.5716503026 5.5157226944 5.4012304102 5.4412101126 5.5482392274 5.7606460322 
5.8696566859 6.6334041589 6.8788081386 6.4720317958 6.659772636 8.2701747402 12.110778906 12.947642312 12.963899606 
11.466887346 11.369695691 11.250929389 9.2678112465 9.6967737771 11.336917597 12.040068945 11.963411687 11.883254577 
11.50651948 11.521668851 10.822091467 10.835597622 11.617932616 10.435016026 10.431576532 10.345729134 10.335770642 
10.305733082 10.368359456 9.0563519616 7.5824131643 7.8343812009 7.7702286078 7.6433274223 7.58084474 7.5072128976 
7.4059871162 7.2465052811 7.2384423169 7.2088201007 7.1961981926 6.0614914104 5.4829321916 6.2408120606 6.2478895503 
6.2743828837 6.27232381 6.3756233588 6.3999567287 6.3882827476 6.3863343638 6.3822044764 6.413137657 6.4133846612 
6.3950975399 6.3873283274 6.45301043 6.5081370158 6.48091192 6.3569906624 6.3347421827 6.3061043599 5.9270168373 
5.708465616 5.6067035449 5.3789820937 4.9679837993 4.3847707862 3.9241503761 3.5022871059 2.953112026 2.7101651478 
2.5593721969 2.2080569007 1.9481549382 1.8967865025 1.8157273362 1.7502646065 1.7313945745 1.7568102887 1.6091080095 
1.3574981447 1.3754985614 1.5851550887 1.4668579771 1.517581633 1.7077056488 2.0024105329 2.2068025437 2.5247949601 
2.7222764732 2.8775670142 3.0281489441 3.237373755 3.263665675 3.3447286907 3.5426974928 3.6612384446 3.8634057781 
3.9465425745 3.639549543 2.929450154 3.2798373426 3.2177541079 3.0905016118 3.0251199328 2.8882001824 2.8167681313 
2.8484523271 2.8674983089 2.8920066312 2.9556248934 3.0400835267 3.1982412533 3.2809355462 3.4500671495 3.5391346467 
3.4516983052 4.9848016957 5.4625932569 5.4559224792 5.3939696357 5.3388413149 5.3431349691 5.4230101923 5.5182285746 
5.6244233745 5.8424448794 5.9401448098 6.6702828199 6.7573617898 6.2708174019 6.2742178066 6.4981842096 6.6290048872 
6.715176665 10.753246376 12.099127354 12.925116448 12.884044835 12.89675249 12.922264219 12.990887693 11.478558484 
11.378084181 12.340167189 12.306132521 11.250746284 10.562750117 10.601522253 11.068618119 10.98234826 12.408829306 
12.585864766 12.042651101 11.221955294 11.220726518 11.964391153 11.908132477 11.154924853 11.124905901 11.480257328 
11.493498822 10.815847941 10.73836899 10.747797832 10.761750145 10.848673831 11.614492247 10.482696388 10.445597811 
10.363886458 10.19611063 10.180061545 10.162749367 10.287386098 10.352503845 9.0397884856 7.6260403081 7.8625127886 
7.795954407 7.6655425897 7.6019312042 7.476351007 7.4295476773 7.3285260867 7.1960911796 7.1750871648 7.1599946143 
7.1354182553 7.1679534685 6.0277932381 5.5498050118 6.3712765384 6.383819456 6.378257107 6.4427337972 6.4647527634 
6.4595685711 6.4567247837 6.4530147154 6.5139575566 6.5138874372 6.4752391621 6.4452406148 6.527648588 6.66379327 
6.6371903543 6.5306768772 6.4886741526 6.5107011894 6.2766010424 6.1361989621 5.8500755517 5.6032729952 5.4354063999 
5.2885236916 4.8007992683 4.5217712643 4.1378074743 3.6418164712 3.4116548713 2.9255953137 2.5057032755 2.2014549173 
1.8956621797 1.8044829969 1.66246665 1.72091764 1.7090356957 1.6612687236 1.6820571733 1.6072828565 1.3327545236 
1.2816330093 1.3392337705 1.4717950398 1.3449295408 1.3731867712 1.5509196603 1.8357441132 2.3136181671 2.6015728331 
2.6890785241 2.8041167734 3.0097794733 3.0845575108 3.2960272226 3.3155789924 3.4757532371 3.5575675466 3.7554789648 
3.8749731638 3.5166603496 2.9257633774 3.2677183741 3.1949124086 3.0604079792 2.9988897392 2.8718970974 2.8071621007 
2.6733002067 2.6906153452 2.7274952984 2.7417246608 2.79859041 2.9619605106 3.0410392973 3.2082161483 3.2933819238 
3.4733455758 3.5658392896 3.4550986916 4.8340771757 5.3997074747 5.3448811126 5.2842289685 5.278146559 5.2197311463 
5.2271666533 5.2678653863 5.3753277421 5.5876432204 5.6966529776 5.8920404428 5.9855552505 6.095956552 6.0963932648 
6.1021056055 6.3059315732 6.4945126416 6.6662751189 11.86366118 12.419068829 12.094528222 12.907995289 12.858590349 
12.768921146 12.788629408 12.804924171 12.941459951 13.000622271 11.498645602 11.388488051 12.373761903 12.28301818 
12.254360894 12.210139996 12.266736827 11.250258941 10.597874661 11.296561697 11.292159327 10.603461199 11.059567852 
10.906828762 10.891449158 10.982763451 12.38242622 12.176791672 12.174805113 12.573600523 12.045453204 11.222940219 
11.144396103 11.142871173 11.143621219 11.222414375 11.963945863 11.919755672 11.173960531 11.092017822 11.065344416 
11.03863004 11.100384006 11.447068068 11.458365005 10.808521159 10.732067578 10.579904082 10.586286812 10.600060105 
10.774131026 10.862685519 11.571883057 10.5353909 10.448059509 10.370025367 10.210328874 10.12859245 10.110177805 
10.100097113 10.069861755 10.132182502 10.262536758 10.326531655 9.0219957905 7.6774532118 7.9345541372 7.8478725089 
7.6937045929 7.627708464 7.4985862859 7.4352365755 7.4141468591 7.3404837062 7.2389677192 7.0766143002 7.0656750965 
7.0343506659 7.021922849 7.0866844508 7.1068813983 5.9755206484 5.6168825206 6.457022705 6.4520697493 6.5520442057 
6.5756459194 6.5639396034 6.5638209694 6.5552401351 6.5857872625 6.5864476935 6.566527409 6.504091433 6.5207177525 
6.6035261017 6.6686724355 6.6488570609 6.6130871179 6.596803737 6.5666055987 6.5709649673 6.4635544465 6.22029442 
6.0414776791 5.7284874209 5.6530629051 5.2839989448 4.9557899599 4.4353633262 4.0547302352 3.5900167368 3.1109274103 
2.6298413174 2.3530807351 2.112564733 1.9371341447 1.7063078316 1.604897385 1.585548385 1.6284095543 1.6505558541 
1.6129347847 1.6576696215 1.4970351788 1.161061422 1.0975185864 1.2049039045 1.2235676007 1.2293582702 1.4158700475 
1.8701500765 2.1381909412 2.5144857282 2.6864412849 2.8481501113 3.0600851985 3.2201980449 3.4344387691 3.4506072993 
3.5295982127 3.691224343 3.773591838 3.4418391551 2.9254514905 3.2436670964 3.1803016775 3.0475392488 2.9757941581 
2.8421223978 2.7804767599 2.6558403684 2.5930026327 2.6033251286 2.6376356315 2.6596164397 2.6855937198 2.7211398068 
2.8046832718 2.9628338572 3.0459701568 3.2157414317 3.3047386349 3.489164776 3.5679893289 3.4599831959 4.6774418989 
5.0781355607 5.1717541794 5.220246439 5.1663656321 5.1070481133 5.1037530894 5.165644643 5.1699926991 5.250164922 
5.3454492433 5.4515448801 5.6695134157 5.7671958035 5.9542773479 5.9237009403 5.926053372 6.1076036739 6.3326591953 
6.4654121476 6.5508140325 6.714062905 11.489030071 13.498839738 13.943502138 11.858603681 12.091544204 12.896707416 
12.848511142 12.751903838 12.70331217 12.726389104 12.738552239 12.764195893 12.832087239 12.949609119 13.010057084 
11.509888246 11.399102712 12.406932561 12.318931002 12.140146871 12.106476319 12.071935012 12.184007551 12.255503081 
11.238832338 10.631114904 11.306187898 11.2232212 11.217312605 11.213608498 11.293914866 10.601240054 11.042640781 
10.909980875 10.829306644 10.824536725 10.804424279 10.878227324 10.988800282 12.353390209 12.182524519 12.099972424 
12.096461221 12.091304894 12.150617587 12.566675202 12.050541194 11.225090299 11.145445689 10.98766565 10.986659403 
10.985404442 11.143940207 11.219801301 11.96365776 11.936341808 11.184701857 11.103228404 10.939491091 10.920218258 
10.889576239 11.012807616 11.071343004 11.42182901 11.427392867 10.807682744 10.72881696 10.572413639 10.49606958 
10.50251302 10.512153078 10.526367735 10.613384443 10.790862899 10.889952769 11.530978826 10.575566094 10.44928737 